 Lammps atoms and bonds description file

      4608 atoms


   2 atom types

    -30.6523773     30.6523773   xlo xhi
    -30.6523773     30.6523773   ylo yhi
    -30.6523773     30.6523773   zlo zhi

Masses

  1     28.0550000
  2     16.0000000

Atoms

1 1 1   1.3000      28.8776371212     -18.6557315512      20.2914429679 
2 2 1   1.3000     -28.3263595969      -6.4889413867     -13.1128937668 
3 3 1   1.3000      27.2757166163      -6.9116135153      25.2367587364 
4 4 1   1.3000      12.1744150265      -3.3808616621      13.3567341684 
5 5 1   1.3000     -20.0168640967      22.3463456113     -12.9912451868 
6 6 1   1.3000      -8.5128231046     -10.4785234237      22.8180823194 
7 7 1   1.3000      23.2606368486     -14.4087736122     -19.1682430812 
8 8 1   1.3000     -20.4792738743       7.3452962288      17.9817681490 
9 9 1   1.3000     -10.9412322950      22.3313724115      16.0004773329 
10 10 1   1.3000      -6.4930981267     -17.5116259194     -12.0011021529 
11 11 1   1.3000       4.5549922465       7.6260266880       1.8893532897 
12 12 1   1.3000      -0.8929217091     -29.3307151442     -22.9201063523 
13 13 1   1.3000     -14.2810654833      20.1350359755      14.4952551042 
14 14 1   1.3000      17.9556476634      28.7682442440     -13.8302216572 
15 15 1   1.3000     -23.8187151375       2.3180883407     -18.5883619185 
16 16 1   1.3000      12.1268535108     -24.4406476236     -23.5646448426 
17 17 1   1.3000      27.0905031189     -23.7844988526     -29.5052683543 
18 18 1   1.3000      -6.3600212163       8.7376604069     -15.3476053634 
19 19 1   1.3000      22.7519008861      29.4553833207      25.2104743880 
20 20 1   1.3000      -8.8263729005      19.7191036728     -19.8859996408 
21 21 1   1.3000      -9.6407379349      19.4740616654      -2.4447747751 
22 22 1   1.3000      25.3882975645       3.4962119376      -6.0483653076 
23 23 1   1.3000      -2.5141596008      10.2412416209      26.5234155187 
24 24 1   1.3000     -24.0617560787      13.8095151130     -15.6745730286 
25 25 1   1.3000      -5.6239416086      20.3242834108       7.7001541981 
26 26 1   1.3000      16.7851477971      29.2981082113     -23.2713672930 
27 27 1   1.3000      13.2356791884      -6.2913988956     -21.4108278006 
28 28 1   1.3000       5.1463516843      -5.4983346617      -4.3632845843 
29 29 1   1.3000      -2.7206501751     -15.7628580790      23.5021076230 
30 30 1   1.3000      -7.8511600680     -25.7086801574       2.1590541511 
31 31 1   1.3000     -11.4349849243       9.9259009282      18.2605516988 
32 32 1   1.3000      29.0634253868      -1.7638818098      10.0332927746 
33 33 1   1.3000       2.0774967951       7.9520091848      13.9756234994 
34 34 1   1.3000     -20.3292539784      -7.3377671897     -14.1057213628 
35 35 1   1.3000       4.6939002919       4.7594556445      21.4402778192 
36 36 1   1.3000      -5.7839147269      26.7069948246     -12.3994859846 
37 37 1   1.3000     -10.1353376708     -21.0084728003      17.7800283340 
38 38 1   1.3000     -27.5105358352       7.4234772029      20.9812575868 
39 39 1   1.3000     -12.6491108809      23.8414535397      -0.7010353174 
40 40 1   1.3000     -18.7063640626     -27.4472312412      23.6726915599 
41 41 1   1.3000     -16.1567714865     -10.9542213184     -18.8202317508 
42 42 1   1.3000      -0.4599650208      -7.1743919935     -10.8915137363 
43 43 1   1.3000     -12.8459180433      24.5365131683      26.8250958944 
44 44 1   1.3000     -20.6560270615     -20.3338193986     -11.5391036817 
45 45 1   1.3000      -9.1228282117     -15.8388708788       7.5067995034 
46 46 1   1.3000       6.2649247272      22.6806748491      -5.2546091318 
47 47 1   1.3000     -24.9343816046      14.9479916556      19.3979771708 
48 48 1   1.3000      24.0488933402      26.4296271922     -19.8189945360 
49 49 1   1.3000      22.7888995652     -14.9546787562     -23.6917176729 
50 50 1   1.3000      10.4228712348      24.8116817976     -19.7054544263 
51 51 1   1.3000     -21.2966521389     -23.2865976355     -18.3104628162 
52 52 1   1.3000      -6.4961701240     -13.8465605198      -2.7575787244 
53 53 1   1.3000      29.8161489361      19.1922909192     -22.1758628158 
54 54 1   1.3000       0.6860838844     -14.6632741521      12.5040510236 
55 55 1   1.3000       1.2620741214      26.4828465783       4.2822108723 
56 56 1   1.3000      19.8508660194      -4.1464342740       4.5235918251 
57 57 1   1.3000      16.7951536200     -13.1874715601     -13.7115211425 
58 58 1   1.3000       2.4297723433      18.9527391675     -16.2831593336 
59 59 1   1.3000     -29.0532452794      22.3911107730      17.9531199549 
60 60 1   1.3000      -5.9754291915      12.3447164016      23.3442114542 
61 61 1   1.3000      16.1852614355      15.6428926304       0.7803100782 
62 62 1   1.3000       8.9814779514      15.8089005230      23.7232455489 
63 63 1   1.3000     -14.0774535908      13.6712193874     -16.3117243637 
64 64 1   1.3000       0.0959001204      12.2819543901     -22.0394508796 
65 65 1   1.3000     -10.0912418873      21.8196507533      29.5672931874 
66 66 1   1.3000      12.6044534772      25.4149460296      -0.2090285074 
67 67 1   1.3000     -29.2986751590       4.9810443777      -3.4283985184 
68 68 1   1.3000       2.4112516552      22.7750554850      14.9806150989 
69 69 1   1.3000      -1.4545292433      23.4515770873      17.4134338294 
70 70 1   1.3000     -21.9514098413      -5.3727153686      16.0223996002 
71 71 1   1.3000     -20.1208489769       3.5864822458       5.5531122516 
72 72 1   1.3000       8.7975523681      26.8258707111      16.7084949029 
73 73 1   1.3000     -13.9888551208      -7.6080961555      -9.6259660660 
74 74 1   1.3000      12.4433289092       2.8280997164     -14.4411114059 
75 75 1   1.3000      30.4942719869     -24.7957801081       7.1473030477 
76 76 1   1.3000     -22.2708357194      22.2582975279      22.9915145938 
77 77 1   1.3000      -4.2253086082     -26.7950078162      12.9249865655 
78 78 1   1.3000       2.2844917539      29.3439319647      21.6241961917 
79 79 1   1.3000      -6.2239533103      -2.7264197981      20.9281779716 
80 80 1   1.3000      29.5792667024      -1.8872917969      24.0778731110 
81 81 1   1.3000       5.8989369588     -18.6284176068       6.2830324730 
82 82 1   1.3000       7.2784400949      16.6691865910     -27.6639592055 
83 83 1   1.3000     -12.1577219243      29.5099498628      15.7053110808 
84 84 1   1.3000       6.6557981074       4.3454291057       5.7195747217 
85 85 1   1.3000     -27.1437165722     -10.5366466246     -13.7924271708 
86 86 1   1.3000     -13.5004026158      -2.4291515608      -0.0221070392 
87 87 1   1.3000      13.8897760002      25.8397996076     -25.0301291700 
88 88 1   1.3000     -19.1116865666     -17.2986934304      11.2296098978 
89 89 1   1.3000      27.7611208928      15.3470816642      24.3631326071 
90 90 1   1.3000     -26.2792779091     -15.6292115684      -3.4706962293 
91 91 1   1.3000     -23.0999684135      -2.5539692237     -18.9352739364 
92 92 1   1.3000      -7.5085125926      -8.4619288803     -27.2749100272 
93 93 1   1.3000      -0.1382757767     -24.5726922195      16.6164428044 
94 94 1   1.3000     -24.4854659733      16.5726870701       0.2793131029 
95 95 1   1.3000     -10.3610143607     -23.9263610774      14.8759411922 
96 96 1   1.3000     -13.9250155371      18.4755676743      -9.5521948375 
97 97 1   1.3000       7.4401149339      28.6096314719       4.8416142047 
98 98 1   1.3000      -1.7251384445     -28.0844289580       9.4038268846 
99 99 1   1.3000       5.9038819910     -18.3296500763      16.9981174166 
100 100 1   1.3000      -9.8799014547       5.9988954882     -21.1539782849 
101 101 1   1.3000       5.3179094931      11.6886536395     -18.1047754993 
102 102 1   1.3000      -3.0174660425       7.8546993528      18.1737441188 
103 103 1   1.3000     -12.0295230648      -8.4247452177      20.8753067365 
104 104 1   1.3000     -23.2872284328      17.1132688040     -22.2657236569 
105 105 1   1.3000      11.9350666887     -13.7112711190     -22.8320294404 
106 106 1   1.3000      10.7769145688      20.1379411185      25.1402096587 
107 107 1   1.3000      -9.8097494755       0.7465205631      14.6919160666 
108 108 1   1.3000      21.1733390036     -19.5492293936     -18.2686467514 
109 109 1   1.3000      13.8209258604      -4.3693230723      -9.2145062807 
110 110 1   1.3000     -14.9718628767      29.3463850608     -16.3388575753 
111 111 1   1.3000       4.4697748723       5.4191902191       9.9695000854 
112 112 1   1.3000     -13.7802563881      10.2597998214      27.7848955038 
113 113 1   1.3000      -1.6867177269     -30.6355273618      -2.8459544641 
114 114 1   1.3000       4.7618295178      12.9950381819     -14.2350533680 
115 115 1   1.3000     -14.9717865567      -8.6214474649       7.3606031936 
116 116 1   1.3000      13.6369136113      21.4320435027     -22.7047291827 
117 117 1   1.3000     -16.0271487805      -0.7141573390     -21.3577045522 
118 118 1   1.3000      28.1410770631      24.0838494778      15.7753837817 
119 119 1   1.3000     -15.4891014297       9.5801107338       2.1231343870 
120 120 1   1.3000      -4.5901004701      11.5075613350       1.2156942227 
121 121 1   1.3000     -27.0593247568     -13.3497108822       0.5544463668 
122 122 1   1.3000      18.5953487312       6.9940089551       0.8959862976 
123 123 1   1.3000     -28.6779757613       5.5721064689     -29.7229849897 
124 124 1   1.3000     -30.3597288956      18.5081673250      24.6489490067 
125 125 1   1.3000     -11.5456211696      -1.6822345104     -13.7970839584 
126 126 1   1.3000      13.2435331809      28.1168744080      19.7802978676 
127 127 1   1.3000     -17.5310269606     -20.6732240882       0.1359181806 
128 128 1   1.3000     -25.9514335302      30.2902384992       8.7757694336 
129 129 1   1.3000     -25.4290554555     -12.1446340831     -18.4767767934 
130 130 1   1.3000      21.6116999498      20.8526403058     -12.5668610463 
131 131 1   1.3000      -2.6470302692     -16.9046241600     -24.5013361660 
132 132 1   1.3000      -0.0704804588      -4.0899113140     -15.2835686716 
133 133 1   1.3000     -23.1966542855     -22.8082020072      -8.5483968620 
134 134 1   1.3000     -14.9614059340     -24.1418291385       2.4146294175 
135 135 1   1.3000      27.3139033906     -17.4880894265     -20.5643859866 
136 136 1   1.3000       9.4663105492      23.4220848254      22.4970495050 
137 137 1   1.3000     -26.9374554933      -4.4460766042      14.8337259673 
138 138 1   1.3000      10.3920190331      28.2276857923      -2.4681440905 
139 139 1   1.3000      -7.5617367176     -22.7317059275     -20.2120923318 
140 140 1   1.3000     -22.8069295136       6.0909467493      -8.1980526019 
141 141 1   1.3000       6.1238663788      28.1295804306     -18.9988728539 
142 142 1   1.3000     -23.0611346920      -2.0381777606     -23.7309599213 
143 143 1   1.3000      10.5529774779      28.5458483764     -18.5972267657 
144 144 1   1.3000     -28.1645871387      24.2383535136      24.8557837086 
145 145 1   1.3000     -28.3959828694      -8.1870868720     -27.8402265221 
146 146 1   1.3000       6.5888591886      30.1245962114     -23.4651542529 
147 147 1   1.3000      -3.3367110442     -29.6319783274       4.7868625895 
148 148 1   1.3000       0.1257092785      27.8181994083      25.4235965600 
149 149 1   1.3000     -16.9113862346     -20.1618022027      22.2178406125 
150 150 1   1.3000      15.6416430137     -12.6640043589      -9.0868062039 
151 151 1   1.3000     -10.3250451701      -3.6569746889      20.5494021791 
152 152 1   1.3000     -10.3892512602     -25.9300859201      25.0576267378 
153 153 1   1.3000      30.0377145494     -15.4971607265      -6.2157496407 
154 154 1   1.3000       2.0572886571       8.1919394158      25.1749118031 
155 155 1   1.3000     -22.5420773573      14.4072774286      11.2008045478 
156 156 1   1.3000     -17.8246912097       5.6828305971      22.7018471142 
157 157 1   1.3000      -5.5657035370      -9.3536622514      16.0768926161 
158 158 1   1.3000       1.5595573487      24.4238086335      21.6220889465 
159 159 1   1.3000       5.8097252272      -7.3812118540      27.2378385563 
160 160 1   1.3000      -7.0460617239      -1.3775062134     -29.6762241281 
161 161 1   1.3000      -0.2848576572       2.0670575283      -3.4309737674 
162 162 1   1.3000      29.5116219262     -11.1564422717      27.5549003241 
163 163 1   1.3000      11.3172124124     -10.8855579049      -8.1001836523 
164 164 1   1.3000      23.6474612109      19.3886636168      20.4702513645 
165 165 1   1.3000     -29.7599867573     -19.4899017566      -2.3241060922 
166 166 1   1.3000     -30.2891916425     -11.9507473976     -29.6191416143 
167 167 1   1.3000     -13.4022786030     -13.2265233842       6.7675081995 
168 168 1   1.3000      13.0120021343      14.2936619086       5.2539763443 
169 169 1   1.3000      -2.3464879894      12.2088959268      18.9932803407 
170 170 1   1.3000      -3.4293032746     -14.1013233992     -20.1265252878 
171 171 1   1.3000      -7.9508828173      -5.5762159275     -20.1385659661 
172 172 1   1.3000      -8.7204863876     -12.1978262698       1.6374926524 
173 173 1   1.3000       1.9499488067      16.6347005837     -24.9398169498 
174 174 1   1.3000     -11.7113670977      14.2191598541     -12.3137554502 
175 175 1   1.3000      20.2743546886     -12.2519057578      -8.3640991681 
176 176 1   1.3000     -19.5552814819      -4.1998738920      28.3725593288 
177 177 1   1.3000     -22.3799130697      -2.1715427347      25.0040658983 
178 178 1   1.3000       5.1871376737       5.9115352765     -10.2993252617 
179 179 1   1.3000     -20.4038735706      -8.6889435008      -9.0339329243 
180 180 1   1.3000     -13.3538963930      -3.0188136705      24.6554899618 
181 181 1   1.3000      17.3484352464       7.6982668146       7.5718486093 
182 182 1   1.3000     -19.3369440213      15.6366098545       8.3977580702 
183 183 1   1.3000     -22.7671296259     -14.9582521661      -5.4574563242 
184 184 1   1.3000     -15.7319366841      15.1846839454     -27.8483993943 
185 185 1   1.3000       0.5460268771      22.7494254230       0.7816482722 
186 186 1   1.3000     -21.5430443650       5.6004321301     -20.5661625034 
187 187 1   1.3000      -9.5377113171      -8.2302938958      14.1150560483 
188 188 1   1.3000      28.6872626899     -11.5287616983      23.3080769980 
189 189 1   1.3000      -7.0603144718       7.4656151815      20.2081057612 
190 190 1   1.3000      -4.0629269050     -15.9157608586     -28.5900882321 
191 191 1   1.3000      12.0848576304      10.4841076396     -23.4606728701 
192 192 1   1.3000     -21.2370280383      13.6546044018      17.3520161229 
193 193 1   1.3000     -26.4383901096      26.2813034104      -9.9683279580 
194 194 1   1.3000      20.8605011819       8.7045151633     -20.9846301584 
195 195 1   1.3000       6.3257751593       9.6865909993      12.9561597235 
196 196 1   1.3000      15.5609974031       5.1912425205       4.1461551242 
197 197 1   1.3000     -21.0036928635      20.1523415927      27.0606647848 
198 198 1   1.3000      11.1611128397       9.9860371073       7.7578514459 
199 199 1   1.3000      -2.6176916023      19.3519784034     -23.1736413433 
200 200 1   1.3000      18.3449060726      17.5512707067      22.3169192267 
201 201 1   1.3000       3.5995544360     -12.1725428112      -9.5037870462 
202 202 1   1.3000     -24.3175069848     -14.9993761402     -14.3385055659 
203 203 1   1.3000     -21.9927435299       0.2641189159       9.2306458100 
204 204 1   1.3000      -5.6109800084      17.7337532317      12.4934078535 
205 205 1   1.3000     -10.1792729101      29.8656576982     -13.8921014445 
206 206 1   1.3000     -11.3290474865      13.1050035886      10.8327362623 
207 207 1   1.3000      -1.3565470062      13.9897187369       4.3605700963 
208 208 1   1.3000       2.9724870439     -27.4632533837      19.4252579236 
209 209 1   1.3000     -26.3241971061     -19.7233833339      13.3543434335 
210 210 1   1.3000      -0.2051929703      17.8307449793     -28.4333073927 
211 211 1   1.3000      -8.2700855410     -23.5960260290       6.0761559439 
212 212 1   1.3000     -18.6398598929      28.6619480879       2.3498345590 
213 213 1   1.3000       6.2656163333      26.4291459872      12.0534451128 
214 214 1   1.3000      25.3839906309       5.9249553706     -20.4417549732 
215 215 1   1.3000      18.8495800315     -30.5670547914      -4.3514399743 
216 216 1   1.3000      -4.6699416859      -0.1697391859      15.3596331645 
217 217 1   1.3000     -18.0993015234     -12.0396554433       5.7528769918 
218 218 1   1.3000     -18.1249958355      28.1011189950       9.5609957317 
219 219 1   1.3000      24.1292157589     -12.8067748528      25.1134040056 
220 220 1   1.3000     -18.1683535183      -1.3365696054     -17.8825720385 
221 221 1   1.3000      18.7644085663     -12.9052898225      24.0548010649 
222 222 1   1.3000      29.4973080915       1.1449550203     -29.2153068004 
223 223 1   1.3000      -8.9893245212      13.3978741006      26.9698786396 
224 224 1   1.3000       6.8982714419      -9.0157861723      11.4950097674 
225 225 1   1.3000       4.2911230166      27.0137485390     -27.2919578746 
226 226 1   1.3000      23.0947566458      15.5310568826     -14.7411983883 
227 227 1   1.3000       4.1275005574     -15.7079154141      25.7797461778 
228 228 1   1.3000      -3.4884165456      19.2462507949       2.0041229006 
229 229 1   1.3000     -28.7607798098      17.8841641166      19.3498994858 
230 230 1   1.3000     -19.2367971305      20.1442208325      -3.0455285408 
231 231 1   1.3000     -25.4882735580      13.2802289551     -11.8190448860 
232 232 1   1.3000     -20.3359427842      24.4335263636     -17.8673581968 
233 233 1   1.3000      -5.4481014943     -17.2286419770       7.9614050262 
234 234 1   1.3000       8.4049829097      19.6849623515      -2.3449659536 
235 235 1   1.3000      15.4605964655      11.4036920501      14.8001767031 
236 236 1   1.3000       3.6348006808      13.0874127559      12.4268271879 
237 237 1   1.3000      18.8032349133      19.5870429063     -22.6120275632 
238 238 1   1.3000      -2.3647337448      -3.8066089068      23.7660668652 
239 239 1   1.3000      -4.1372646874       6.9024832282      -8.1575992521 
240 240 1   1.3000     -20.1704937349      14.6093328233       0.1034345950 
241 241 1   1.3000       3.1507240691     -28.9984533716     -29.1319198826 
242 242 1   1.3000      22.4151533661     -23.9217477156      21.8079834451 
243 243 1   1.3000     -18.2650696877     -15.5028824500       1.4377143561 
244 244 1   1.3000     -27.5438607832     -21.9216757110     -16.2473873200 
245 245 1   1.3000      11.8585175331      20.9833534009      29.3219956708 
246 246 1   1.3000      19.5311964672      14.5399695402     -21.9488697175 
247 247 1   1.3000     -21.1362200651     -23.6335438291      22.9381986199 
248 248 1   1.3000      12.5457374371      21.1507964981      -1.8085818321 
249 249 1   1.3000      -1.5660834607     -18.4969811226     -20.0484347839 
250 250 1   1.3000     -23.6651236390     -23.5817508459       3.3356979976 
251 251 1   1.3000      11.6989185836      -2.5294380784     -20.5714326003 
252 252 1   1.3000     -13.0002487697      -1.4130240753       4.6927270125 
253 253 1   1.3000      26.8540810271      -6.5771721134       9.1994653462 
254 254 1   1.3000      -0.0520523867     -28.3626243034      14.5510183393 
255 255 1   1.3000     -19.6051150488       3.0822186612      16.9729182282 
256 256 1   1.3000     -20.3379233311      24.5277209383       2.8363779290 
257 257 1   1.3000     -30.2661523146      -4.0110912808     -29.0457411504 
258 258 1   1.3000      21.5103830974     -15.3356793452      -4.6087440218 
259 259 1   1.3000      -2.8459433374      10.0085296315     -24.2399427372 
260 260 1   1.3000     -25.6274440215     -25.7983793273     -19.7562787444 
261 261 1   1.3000      23.0933286994       4.9860448535     -29.9774188649 
262 262 1   1.3000     -26.6205183973     -23.7670850130     -29.4258545822 
263 263 1   1.3000       9.8292439643      16.2554284560      17.1632800082 
264 264 1   1.3000       0.9167983237      16.9430034134      10.3555618984 
265 265 1   1.3000      -6.5090800418      21.4735489010      16.6643590386 
266 266 1   1.3000      22.2221289412      21.8170982601     -16.9625633832 
267 267 1   1.3000     -13.5942760028      14.6989119580     -21.5781413763 
268 268 1   1.3000      -5.1910720751      18.5781469329      -8.5500618936 
269 269 1   1.3000     -20.5894337961     -13.5735738241      13.0695224650 
270 270 1   1.3000      -9.1744599632     -10.6840216189      17.8018249181 
271 271 1   1.3000     -30.2213002209     -28.9564495009      27.0500348692 
272 272 1   1.3000      17.9734486908      22.4007001669      22.5484607965 
273 273 1   1.3000     -19.8605139148      28.2450602819      28.0300632955 
274 274 1   1.3000      18.7701633599      29.3060565432      -9.4074861478 
275 275 1   1.3000     -16.3178521316     -18.0788550367     -11.3129362704 
276 276 1   1.3000      15.5754333162      -5.2580778583       8.8671263270 
277 277 1   1.3000      11.1671258305       4.6250770363      20.9289562152 
278 278 1   1.3000     -16.8403833494     -14.5465325111       8.6231287491 
279 279 1   1.3000      29.9650260224     -11.0265669676       2.0402490792 
280 280 1   1.3000     -28.1805325568      10.6222115653      25.5184689598 
281 281 1   1.3000      -5.1160087418     -29.4527610237      -5.3549414207 
282 282 1   1.3000     -12.7897698058     -13.8548775414     -18.3801808455 
283 283 1   1.3000      -0.3296432791       3.1621943107      19.6361224733 
284 284 1   1.3000      20.5557309868      27.2991990374      22.0221563048 
285 285 1   1.3000     -27.4434946423      -3.4928760147      27.7739000908 
286 286 1   1.3000      27.3633646761      -9.1031155238     -16.9700078014 
287 287 1   1.3000      16.8835168606       5.4534940515      -2.7561709193 
288 288 1   1.3000      13.2155146515      25.5069675619      15.7723356344 
289 289 1   1.3000      18.3181229564       9.9087287322      23.3346782991 
290 290 1   1.3000      -2.2290162263      18.9557827677      26.4698999036 
291 291 1   1.3000      -8.1444325383       8.5066653168      16.1421519410 
292 292 1   1.3000      -1.7540878014     -26.8805798682       1.4624480699 
293 293 1   1.3000     -18.8835302822      28.4035321453     -18.7041749101 
294 294 1   1.3000     -25.2371238725     -30.3477233846     -16.6672876455 
295 295 1   1.3000     -23.1681407428     -23.1931509694     -13.9262093519 
296 296 1   1.3000       5.0272489148      17.7123936938      -4.4884033208 
297 297 1   1.3000       5.7329072471      -0.4651127082      12.8737607638 
298 298 1   1.3000      -8.9411114782     -16.6526921456      19.4670772571 
299 299 1   1.3000      -4.9647826812      -7.3671437462      24.6261275995 
300 300 1   1.3000     -17.4315118849       0.3143746900      24.4342023074 
301 301 1   1.3000      20.2384012513       7.7393660910     -28.4299202282 
302 302 1   1.3000       6.6506832971     -30.2804196458      -6.0276195416 
303 303 1   1.3000      25.1534679744       2.5125563004     -18.5355889290 
304 304 1   1.3000      -8.0369816244     -27.3895910951     -14.1005562851 
305 305 1   1.3000      -8.3913130480      -3.9231515800      16.4557447685 
306 306 1   1.3000     -14.1997348170      25.2291219745      -5.5476682865 
307 307 1   1.3000     -27.8710647413     -30.4413945398      30.0492452804 
308 308 1   1.3000     -12.3229215132      22.5308433427      -9.0534841685 
309 309 1   1.3000      -5.5785886964     -13.4960051850      19.7101054049 
310 310 1   1.3000      27.1517824146     -27.1378371266      28.6649887527 
311 311 1   1.3000     -29.1235891701      12.4929873804      -9.2892411954 
312 312 1   1.3000       0.2487422914      10.3350315188       1.9117083109 
313 313 1   1.3000     -19.0125181123     -25.6954190307       0.3678822288 
314 314 1   1.3000      18.4233969188       5.9050221194      29.1874089398 
315 315 1   1.3000      -4.2412807365       2.1330589423      -6.7810150858 
316 316 1   1.3000     -21.7750669581     -26.1038787667      26.8677259948 
317 317 1   1.3000     -15.0119862773      -5.6797146806       2.5852532676 
318 318 1   1.3000       3.4328710795      11.9564896682       3.9785559722 
319 319 1   1.3000      18.7565746410      -8.2950445803      12.2387703135 
320 320 1   1.3000       8.2465243457       2.3789302202       9.8130291920 
321 321 1   1.3000      19.6321045928     -23.0888273772      -4.8963271375 
322 322 1   1.3000      26.8304699107     -12.8421637522     -21.5605855619 
323 323 1   1.3000     -12.7797485993      25.2549812988     -14.9958200977 
324 324 1   1.3000       6.2313004295      -7.3618031774       7.6374415842 
325 325 1   1.3000     -21.2207977140     -18.1984579673      14.4442706632 
326 326 1   1.3000      -1.4196158173      -0.1008432262       7.2321072589 
327 327 1   1.3000     -19.6562266400      -3.4061041777     -11.7607952819 
328 328 1   1.3000      -2.4367536827      16.3050045229      22.1044917485 
329 329 1   1.3000     -17.9483632106      -2.7530933490     -28.6647545968 
330 330 1   1.3000     -17.4505009418     -29.0408913602       8.3613783088 
331 331 1   1.3000     -22.2838953518      14.8240753492       4.6610750778 
332 332 1   1.3000     -17.9967668282      20.4295549317       6.1164582857 
333 333 1   1.3000     -30.6498932327       2.6245231147      21.3757882482 
334 334 1   1.3000     -19.6489253794       0.0227905640      28.1024983490 
335 335 1   1.3000       8.7500522202      -9.4545988717      23.2059955032 
336 336 1   1.3000      14.2789560876      17.0711669850      18.6230528556 
337 337 1   1.3000       7.6407527615      -7.4374878192       0.3524425024 
338 338 1   1.3000      -5.3750747584      11.5247349554       5.9341948031 
339 339 1   1.3000     -12.3982579397     -17.3497230849      22.0871809529 
340 340 1   1.3000      -9.1579150456      -8.0193526162      -8.3943030367 
341 341 1   1.3000       3.5610347025       0.4323462683       9.0687489219 
342 342 1   1.3000      -7.3719870595      16.4637960121      -4.8851579397 
343 343 1   1.3000       3.2862990861      -3.4672119977      30.6257812491 
344 344 1   1.3000      -4.4756392545     -27.0097217642      17.5248895672 
345 345 1   1.3000     -24.2102494192      10.8492043837     -19.3539467351 
346 346 1   1.3000       9.3844988374      16.9815265520      28.2741974696 
347 347 1   1.3000       4.2775313739      24.5953620235       8.1570662519 
348 348 1   1.3000      20.0245843199     -16.8161871589     -26.4136620036 
349 349 1   1.3000      25.5393818675      25.9413214397      23.9734318011 
350 350 1   1.3000      12.5528003555       5.6476212047     -24.5477002151 
351 351 1   1.3000      -7.1211873788      -7.1265540392      19.7156685472 
352 352 1   1.3000      10.4798755585      11.4945401503     -19.8144350964 
353 353 1   1.3000       2.8984956962     -10.3881267156       7.3622532177 
354 354 1   1.3000     -15.0307409775     -11.1457008037      27.1477266533 
355 355 1   1.3000     -15.0967519496      28.0526543291     -25.7262831296 
356 356 1   1.3000     -12.3767545835       1.6851167078      10.3672007042 
357 357 1   1.3000       7.4183323155      -2.8300348280       7.6335414767 
358 358 1   1.3000     -21.0397377417      -4.2607507935       8.3401546245 
359 359 1   1.3000      -3.5132399803      10.8948912896      10.1214908085 
360 360 1   1.3000      22.2266420219     -20.2992555390     -27.5522213766 
361 361 1   1.3000      -8.0235260317      19.5688475222       2.8643541360 
362 362 1   1.3000      28.5242466659     -10.3850846396     -26.5097988981 
363 363 1   1.3000      16.6960629180     -19.6684026570     -20.2202253315 
364 364 1   1.3000     -14.6603599077      -5.7038649559     -29.3234584022 
365 365 1   1.3000      18.4029955456      21.1793572568       5.5083268200 
366 366 1   1.3000       3.2569736279     -24.5715012298      29.1422606429 
367 367 1   1.3000      13.1519282768      20.5383215855     -27.5768362118 
368 368 1   1.3000     -19.7720531484      -5.0212705155       2.8203391596 
369 369 1   1.3000     -25.3792401994       8.6018260759     -11.6339744655 
370 370 1   1.3000     -25.4669723188      12.2585652536      28.7669751583 
371 371 1   1.3000     -14.0351444421      -9.6929881135      16.4281819777 
372 372 1   1.3000     -22.0261688061     -18.9645935218       1.6310631641 
373 373 1   1.3000     -11.7909844652      -7.9974955471      25.8510557579 
374 374 1   1.3000     -11.6002036151     -16.1970116690     -25.5321481753 
375 375 1   1.3000      -9.6964542871     -27.2735746241      29.4385838192 
376 376 1   1.3000     -24.0198337740       9.9929403282      18.8856862646 
377 377 1   1.3000      18.0515805189     -11.1470405003      27.9579529259 
378 378 1   1.3000      28.1445339873      12.7054815468     -10.6419092982 
379 379 1   1.3000      -0.9686874707      28.1542804626      11.0645627186 
380 380 1   1.3000      21.4867127899     -10.9425590350     -21.3452621347 
381 381 1   1.3000      -9.6576209118      -1.8250367704       8.1209597501 
382 382 1   1.3000      12.0243697513     -12.8052890592      20.9683911366 
383 383 1   1.3000      17.2795507908     -25.4256792267      20.1133169280 
384 384 1   1.3000       9.1809260215       5.9838363866      17.5377388399 
385 385 1   1.3000      -5.6449381553       8.6799392901     -20.2072760328 
386 386 1   1.3000     -15.1131895756     -21.0901768199       5.5005371418 
387 387 1   1.3000     -15.4223249917      -7.8791038840     -22.9799324155 
388 388 1   1.3000      -6.1458643644       6.6208225644       0.0918874880 
389 389 1   1.3000       2.3832641032     -10.2578150439     -19.9931565558 