ITEM: TIMESTEP
90
ITEM: NUMBER OF ATOMS
4608
ITEM: BOX BOUNDS pp pp pp
-3.0652377300000001e+01 3.0652377300000001e+01
-3.0652377300000001e+01 3.0652377300000001e+01
-3.0652377300000001e+01 3.0652377300000001e+01
ITEM: ATOMS id mol type q x y z 
1 1 1   1.3000      28.6648336547     -18.6901365323      20.2978569506 
2 2 1   1.3000     -28.3079218113      -6.4383735850     -13.0036896825 
3 3 1   1.3000      27.1778861381      -6.8379025323      25.2436452648 
4 4 1   1.3000      12.2790141536      -3.4465446573      13.3781414436 
5 5 1   1.3000     -20.0892543509      22.2078242965     -12.9856129669 
6 6 1   1.3000      -8.6527966304     -10.5428817018      22.9424070997 
7 7 1   1.3000      23.1384762810     -14.3426646272     -19.0961118708 
8 8 1   1.3000     -20.6151957324       7.0139815057      18.1564840101 
9 9 1   1.3000     -11.1458581251      22.1998477690      15.8800240259 
10 10 1   1.3000      -6.5834396945     -17.2143580835     -12.1667672102 
11 11 1   1.3000       4.3920499606       7.5633295447       1.9276917668 
12 12 1   1.3000      -0.8543845438     -29.3303709563     -22.9063267503 
13 13 1   1.3000     -14.3014092739      20.3347605000      14.4024340149 
14 14 1   1.3000      17.9065532561      28.9231973335     -13.6979465277 
15 15 1   1.3000     -23.9463308982       2.2615993444     -18.7850098633 
16 16 1   1.3000      11.9426372216     -24.4776543980     -23.5167982423 
17 17 1   1.3000      26.9867146104     -23.6678144072     -29.5286183700 
18 18 1   1.3000      -6.3671895972       8.7674949080     -15.2872351629 
19 19 1   1.3000      22.6735627576      29.2766402455      25.1697549374 
20 20 1   1.3000      -9.0166492112      19.5697366115     -19.8285571712 
21 21 1   1.3000      -9.4781310083      19.4225245154      -2.3394865492 
22 22 1   1.3000      25.3657878303       3.4792766617      -5.9731573008 
23 23 1   1.3000      -2.5422959204      10.1778549551      26.6116022605 
24 24 1   1.3000     -24.5179091266      13.8214670468     -15.7697183743 
25 25 1   1.3000      -5.6820452833      20.3954242699       7.6017722357 
26 26 1   1.3000      16.9335244066      29.3879443117     -23.2051920458 
27 27 1   1.3000      13.3896179294      -6.4036207453     -21.3816305611 
28 28 1   1.3000       5.1732321823      -5.4915330862      -4.2086646919 
29 29 1   1.3000      -2.5422550592     -15.6984792666      23.5053797744 
30 30 1   1.3000      -7.7477260706     -25.8689829219       2.2605426536 
31 31 1   1.3000     -11.5381300199       9.9190813548      18.3548204959 
32 32 1   1.3000      29.1733815390      -1.6016108722       9.9994961803 
33 33 1   1.3000       1.8457993322       7.9332528284      13.8789545990 
34 34 1   1.3000     -20.3980759148      -7.2132127100     -14.4001916357 
35 35 1   1.3000       4.9023562619       4.7970851098      21.3736400870 
36 36 1   1.3000      -5.7049721238      26.5160453082     -12.3835836436 
37 37 1   1.3000     -10.2923845772     -21.0833415367      17.7863041029 
38 38 1   1.3000     -27.5453288508       7.4397553224      20.8886689888 
39 39 1   1.3000     -12.6990183876      23.6702413668      -1.0632574175 
40 40 1   1.3000     -18.7829084218     -27.2160561819      23.7413570474 
41 41 1   1.3000     -16.2115123003     -11.0721901340     -18.8998631415 
42 42 1   1.3000      -0.5414524162      -7.0537549478     -10.7587815400 
43 43 1   1.3000     -12.8419108115      24.4932332460      26.9779269011 
44 44 1   1.3000     -20.7303084121     -20.2383774263     -11.5587145344 
45 45 1   1.3000      -9.1915656095     -15.8145909553       7.5614642960 
46 46 1   1.3000       6.0991466701      22.5413647415      -5.5324143401 
47 47 1   1.3000     -24.7436062583      14.8953544149      19.3850035147 
48 48 1   1.3000      24.1326400153      26.1558964200     -19.9963419149 
49 49 1   1.3000      22.8479548247     -14.8752036350     -23.6113903314 
50 50 1   1.3000      10.2644747299      24.5909752153     -19.6845315574 
51 51 1   1.3000     -21.0131468055     -23.1109282064     -18.3332705501 
52 52 1   1.3000      -6.4233711579     -14.1392134376      -2.7852356672 
53 53 1   1.3000      29.6038028308      19.1528101940     -22.3461543105 
54 54 1   1.3000       0.7041966238     -14.5693495872      12.4787903239 
55 55 1   1.3000       1.1397185729      26.7115437774       4.2250636042 
56 56 1   1.3000      19.9036469613      -4.3717466549       4.5132387108 
57 57 1   1.3000      16.5959263569     -13.5291440742     -13.6506300479 
58 58 1   1.3000       2.6051413164      19.2434899915     -16.1347775890 
59 59 1   1.3000     -28.6759951849      22.6160949677      18.1029485732 
60 60 1   1.3000      -5.9627350215      12.3903958125      23.2739742484 
61 61 1   1.3000      16.3898469437      15.5937227542       0.6216512486 
62 62 1   1.3000       9.0480259386      15.9563162261      23.6059215529 
63 63 1   1.3000     -14.2465402437      13.4730066940     -16.0669039919 
64 64 1   1.3000       0.2457148668      12.2237953285     -21.9699001402 
65 65 1   1.3000      -9.9635872826      21.9190558864      29.5166017864 
66 66 1   1.3000      12.9233298131      25.0497834987      -0.2363165852 
67 67 1   1.3000     -29.3751111662       4.9541632712      -3.7147657816 
68 68 1   1.3000       2.4323278573      22.6744428630      15.0497274273 
69 69 1   1.3000      -1.5839647332      23.4728619669      17.4967243291 
70 70 1   1.3000     -21.8812537564      -5.3516941258      16.0327876621 
71 71 1   1.3000     -20.0036292103       3.6066543901       5.6484294589 
72 72 1   1.3000       8.7233510994      27.0261620170      16.9837874477 
73 73 1   1.3000     -14.1896858722      -7.5739442441      -9.5443564458 
74 74 1   1.3000      12.5087828359       2.9482821234     -14.4122482663 
75 75 1   1.3000      30.5984401677     -24.9481966697       7.1971003197 
76 76 1   1.3000     -22.2874610607      22.3329496145      22.9787363553 
77 77 1   1.3000      -4.3641918814     -26.7083400795      13.1141547971 
78 78 1   1.3000       2.0723348424      29.4463903442      21.5907294930 
79 79 1   1.3000      -6.3761650129      -2.7936623234      20.8058705321 
80 80 1   1.3000      29.5959647098      -2.0503306924      24.0121741531 
81 81 1   1.3000       6.0070890981     -18.4211429860       6.3329851555 
82 82 1   1.3000       7.2030869517      16.3710337442     -27.8391498872 
83 83 1   1.3000     -12.0311972892      29.3497769613      15.7285556666 
84 84 1   1.3000       6.7173589384       4.2465708191       5.4632646393 
85 85 1   1.3000     -26.9881181057     -10.6496857043     -13.7961797046 
86 86 1   1.3000     -13.3106651516      -2.2621981829      -0.2871785932 
87 87 1   1.3000      13.7844903797      25.8488371813     -24.8725554374 
88 88 1   1.3000     -19.0687933953     -17.3609804923      11.3785772671 
89 89 1   1.3000      27.4748524983      15.2331367168      24.1624904383 
90 90 1   1.3000     -26.4256638968     -15.8300904498      -3.5657622157 
91 91 1   1.3000     -23.0235758173      -2.6972576709     -19.0248748017 
92 92 1   1.3000      -7.4859916944      -8.6300483194     -27.4676853790 
93 93 1   1.3000      -0.4080865207     -24.4347434275      16.8059747188 
94 94 1   1.3000     -24.4984717682      16.6995716697       0.5113567817 
95 95 1   1.3000     -10.2859230407     -23.8499253950      15.0135168724 
96 96 1   1.3000     -14.0659940670      18.5968888222      -9.5299238204 
97 97 1   1.3000       7.2986337586      28.5433554587       4.9732871320 
98 98 1   1.3000      -1.8968866159     -28.1010382292       9.4983625680 
99 99 1   1.3000       5.8089760288     -18.2984166985      17.0099613047 
100 100 1   1.3000      -9.7512692861       6.1155106335     -21.1780746328 
101 101 1   1.3000       5.1453413636      11.6043684449     -18.3798574944 
102 102 1   1.3000      -3.2166282329       7.6771973881      17.9582521562 
103 103 1   1.3000     -11.8424488355      -8.2304889460      20.8892045943 
104 104 1   1.3000     -22.9394905793      17.3531690890     -22.2638529832 
105 105 1   1.3000      12.2381993309     -13.6088757427     -22.9986436310 
106 106 1   1.3000      10.7248961369      20.0203771819      25.0381811592 
107 107 1   1.3000      -9.7528619090       0.7009279529      14.9514088923 
108 108 1   1.3000      21.2679880024     -19.6056133489     -18.4078960232 
109 109 1   1.3000      13.8407784449      -4.5400527752      -9.1794413821 
110 110 1   1.3000     -15.0088541273      29.2323384833     -16.5123809452 
111 111 1   1.3000       4.4722036179       5.5409087214      10.0825472157 
112 112 1   1.3000     -13.7599812756      10.3035984141      27.8990812292 
113 113 1   1.3000      -1.8440760278      30.5807392761      -2.8187317135 
114 114 1   1.3000       4.5955380071      12.7894734718     -14.2589252492 
115 115 1   1.3000     -14.9810104111      -8.9194088742       7.6067487705 
116 116 1   1.3000      13.6381492141      21.6129606263     -22.4598322829 
117 117 1   1.3000     -15.9352744285      -0.7758485160     -21.2336001928 
118 118 1   1.3000      28.2988779307      24.3315706896      15.6779063437 
119 119 1   1.3000     -15.5362050473       9.5821928668       2.2852452056 
120 120 1   1.3000      -4.5059369053      11.4671624258       1.4132324813 
121 121 1   1.3000     -26.9904844169     -13.3036197809       0.7342635180 
122 122 1   1.3000      18.7694930408       7.0157413474       1.0092766943 
123 123 1   1.3000     -28.7305280536       5.5095234212     -29.5959645238 
124 124 1   1.3000     -30.3307461389      18.6177396999      24.6887683604 
125 125 1   1.3000     -11.3604230603      -1.7442871575     -13.7858122520 
126 126 1   1.3000      13.3856948252      28.0464269277      19.5900956119 
127 127 1   1.3000     -17.5978409324     -20.6588602820       0.2504588502 
128 128 1   1.3000     -26.0261502028      30.1616341182       8.8672029724 
129 129 1   1.3000     -25.5030629888     -12.1875337846     -18.5314273303 
130 130 1   1.3000      21.6979536167      20.8601798644     -12.5016788287 
131 131 1   1.3000      -2.6869920762     -17.0481247564     -24.3388464916 
132 132 1   1.3000       0.0120352720      -3.8060768676     -15.2875100976 
133 133 1   1.3000     -23.2186311729     -22.8508271743      -8.4585481020 
134 134 1   1.3000     -14.7549120519     -24.2400824253       2.4801825393 
135 135 1   1.3000      27.1019430705     -17.3996502363     -20.3913121064 
136 136 1   1.3000       9.4309440590      23.5401580895      22.4628702044 
137 137 1   1.3000     -26.7858435078      -4.5539065904      14.9302617103 
138 138 1   1.3000      10.4114024456      28.2381744705      -2.5078189360 
139 139 1   1.3000      -7.1966371363     -22.7376108220     -20.4093779967 
140 140 1   1.3000     -22.7416630692       6.0239232816      -8.2871910740 
141 141 1   1.3000       6.3445080609      28.1407272040     -18.8729485142 
142 142 1   1.3000     -23.2511126628      -2.0452374448     -23.7751568097 
143 143 1   1.3000      10.5532725757      28.6587998899     -18.5919151525 
144 144 1   1.3000     -28.1987133521      24.2828864310      24.7055932548 
145 145 1   1.3000     -28.1673908296      -8.2500117685     -27.7786986038 
146 146 1   1.3000       6.7459877490      30.3709660571     -23.5853151178 
147 147 1   1.3000      -3.2477314468     -29.6129891611       4.7004917317 
148 148 1   1.3000       0.0898556397      27.6675932193      25.4739686290 
149 149 1   1.3000     -16.8179469434     -20.1953890629      22.4131280392 
150 150 1   1.3000      15.6238011510     -12.5597658607      -9.0492462536 
151 151 1   1.3000     -10.3085524840      -3.4414398974      20.5358648958 
152 152 1   1.3000     -10.4099502410     -25.5436381139      24.9795722497 
153 153 1   1.3000      29.9671722806     -15.2239995196      -6.0976855943 
154 154 1   1.3000       2.0568628607       8.0903296284      25.1251042880 
155 155 1   1.3000     -22.6881272060      14.6306803962      10.9480272599 
156 156 1   1.3000     -17.7979356090       5.3873066169      22.9243829013 
157 157 1   1.3000      -5.5324745742      -9.3049108176      15.9789904516 
158 158 1   1.3000       1.4862601388      24.5376361074      21.5814187302 
159 159 1   1.3000       5.6929376130      -7.2167601764      27.1688777865 
160 160 1   1.3000      -7.0337316689      -1.2565894600     -29.7785241970 
161 161 1   1.3000      -0.3450225514       2.2073755337      -3.2160479178 
162 162 1   1.3000      29.5162120846     -11.2393517773      27.6446761763 
163 163 1   1.3000      11.3594592263     -10.8943826163      -8.1409926511 
164 164 1   1.3000      23.8346226384      19.2676382423      20.4690725710 
165 165 1   1.3000     -29.5392520000     -19.4484704804      -2.3698962902 
166 166 1   1.3000     -30.3032393386     -11.8946470662     -29.6494107664 
167 167 1   1.3000     -13.4825363812     -13.2929523680       6.6192215851 
168 168 1   1.3000      13.2057104730      14.3710947693       5.2668021081 
169 169 1   1.3000      -2.2812422283      12.1345376997      18.9592214907 
170 170 1   1.3000      -3.3599181159     -14.0275228796     -19.8997290070 
171 171 1   1.3000      -7.9549000593      -5.7726896590     -20.4988788887 
172 172 1   1.3000      -8.7379060651     -12.0037641077       1.6607298402 
173 173 1   1.3000       2.1086453758      16.5021060656     -24.9119322223 
174 174 1   1.3000     -11.5699367457      14.1458012470     -12.4043312681 
175 175 1   1.3000      20.3049529020     -11.9717636862      -8.2922306838 
176 176 1   1.3000     -19.7262714515      -4.4478824911      28.4546093974 
177 177 1   1.3000     -22.5034633991      -2.2177732040      25.1028742037 
178 178 1   1.3000       5.1577011213       6.0859457254     -10.1337868990 
179 179 1   1.3000     -20.4349708228      -8.6825769994      -8.6834576911 
180 180 1   1.3000     -13.1358637921      -2.9709863179      24.5033555267 
181 181 1   1.3000      17.4066482447       7.6400344586       7.6804286520 
182 182 1   1.3000     -19.4219128697      15.6567732628       8.1819247804 
183 183 1   1.3000     -22.5215640891     -14.7544605831      -5.5357251734 
184 184 1   1.3000     -15.8077157433      15.3277694000     -27.7521213083 
185 185 1   1.3000       0.4478729371      22.8228982271       0.5897677359 
186 186 1   1.3000     -21.5903128757       5.7271383346     -20.4360566822 
187 187 1   1.3000      -9.4666473364      -8.2221019287      14.3680181362 
188 188 1   1.3000      28.7280766386     -11.6649809882      23.3518224173 
189 189 1   1.3000      -7.0480853507       7.5740931280      20.3248500230 
190 190 1   1.3000      -4.0765704110     -15.9299930195     -28.6891750519 
191 191 1   1.3000      11.9292353142      10.5864680496     -23.5930344996 
192 192 1   1.3000     -21.1259639463      13.8067858621      17.5888111985 
193 193 1   1.3000     -26.4320741909      26.4003503086      -9.7840044242 
194 194 1   1.3000      20.9879377735       8.8720674588     -20.8326619829 
195 195 1   1.3000       6.2348836316       9.7580513646      12.7800531238 
196 196 1   1.3000      15.6083228384       5.1801665774       4.2371515926 
197 197 1   1.3000     -20.9969546570      20.2638213113      26.9766529306 
198 198 1   1.3000      11.1072177868      10.2777966096       7.7230199823 
199 199 1   1.3000      -2.6212793139      19.3217159757     -23.3427983790 
200 200 1   1.3000      18.4697029826      17.3736476837      22.2346200001 
201 201 1   1.3000       3.4831145352     -12.2045026025      -9.5168377499 
202 202 1   1.3000     -24.3075206312     -15.0716918956     -14.2311623077 
203 203 1   1.3000     -21.9619933111       0.0932914928       9.4581056649 
204 204 1   1.3000      -5.4837726498      17.7567975056      12.4953754649 
205 205 1   1.3000     -10.1917720501      29.7953444427     -13.7057051392 
206 206 1   1.3000     -11.4678931730      13.0592328225      10.7814638831 
207 207 1   1.3000      -1.3732529202      14.1079644716       4.3071150264 
208 208 1   1.3000       3.0105516936     -27.3379034734      19.4835015020 
209 209 1   1.3000     -26.4694638923     -19.6515698797      13.2626055438 
210 210 1   1.3000      -0.2233856995      17.7643283451     -28.8217840219 
211 211 1   1.3000      -8.2961212538     -23.3599518408       5.9852772436 
212 212 1   1.3000     -18.8017487978      28.8403993331       2.4169626283 
213 213 1   1.3000       6.1789854831      26.3108640921      11.8841478532 
214 214 1   1.3000      25.3835834151       5.9548416739     -20.5953685535 
215 215 1   1.3000      18.9658557064     -30.5007732298      -4.4338674601 
216 216 1   1.3000      -4.5798479110      -0.0910333381      15.4561183684 
217 217 1   1.3000     -18.0438105201     -11.9272077422       5.5983986629 
218 218 1   1.3000     -18.1178971403      28.2560105962       9.6625925026 
219 219 1   1.3000      24.0478505914     -12.7487554534      24.9761850909 
220 220 1   1.3000     -18.2042837331      -1.5299111712     -17.8608271954 
221 221 1   1.3000      18.4370206937     -12.7012576456      23.9512329591 
222 222 1   1.3000      29.3304579284       1.1863202083     -29.1035274903 
223 223 1   1.3000      -8.9862877696      13.4135778846      26.8946345704 
224 224 1   1.3000       6.9012342903      -9.1571424456      11.3405248752 
225 225 1   1.3000       4.1590029984      26.8838399344     -27.2512295594 
226 226 1   1.3000      22.7255938967      15.4291833017     -14.6623010652 
227 227 1   1.3000       3.8199602837     -15.7459419139      25.6173386177 
228 228 1   1.3000      -3.2935349284      19.1500262596       2.0512441598 
229 229 1   1.3000     -28.5913400317      17.9397462424      19.3025538292 
230 230 1   1.3000     -19.5192301328      19.9308304468      -2.9673583904 
231 231 1   1.3000     -25.6832689336      13.4282642884     -11.8907751888 
232 232 1   1.3000     -20.3811276619      24.3397678614     -17.8857751767 
233 233 1   1.3000      -5.5634784831     -17.2771827858       7.6126991069 
234 234 1   1.3000       8.2280776843      19.8770742596      -2.2464616822 
235 235 1   1.3000      15.6540424590      11.6218985915      14.7300380145 
236 236 1   1.3000       3.3965016085      13.1424350817      12.2530131460 
237 237 1   1.3000      18.8469020735      19.4833261727     -22.6093775113 
238 238 1   1.3000      -2.4268393734      -3.6859735981      23.7475090635 
239 239 1   1.3000      -4.2854939490       6.6967069658      -8.4282160798 
240 240 1   1.3000     -20.0171969059      14.7190333394       0.1518995129 
241 241 1   1.3000       3.1363608493     -29.0249118210     -29.0431483742 
242 242 1   1.3000      22.3631365670     -23.9395989576      21.9285462484 
243 243 1   1.3000     -18.3424853036     -15.5093118237       1.2755727222 
244 244 1   1.3000     -27.2411752531     -21.6712462830     -16.2835770270 
245 245 1   1.3000      11.9114040459      20.8546272588      29.4716837503 
246 246 1   1.3000      19.6172911360      14.3900123492     -21.9472365512 
247 247 1   1.3000     -21.5164968549     -23.5807287623      22.9176341699 
248 248 1   1.3000      12.7084948291      21.0700327532      -1.5662340381 
249 249 1   1.3000      -1.7506443644     -18.6498511363     -20.0640308050 
250 250 1   1.3000     -23.6481083953     -23.6941563362       3.5546955271 
251 251 1   1.3000      11.6386209223      -2.3872250107     -20.7632326995 
252 252 1   1.3000     -12.8524108848      -1.4347869687       4.6241647399 
253 253 1   1.3000      26.8775568593      -6.5806658097       9.1684273691 
254 254 1   1.3000      -0.0532542149     -28.3599703737      14.7303745978 
255 255 1   1.3000     -19.5997231968       3.1711755922      16.9536339635 
256 256 1   1.3000     -20.3815125080      24.4503961284       2.9400850035 
257 257 1   1.3000     -30.1635691775      -3.8765968434     -28.9663874361 
258 258 1   1.3000      21.1785010707     -15.4785269866      -4.5627505477 
259 259 1   1.3000      -2.9068538850       9.7176544467     -24.5686127709 
260 260 1   1.3000     -25.9048206330     -25.9837466704     -19.6230465766 
261 261 1   1.3000      23.1038031468       5.1203673915     -29.8634939702 
262 262 1   1.3000     -26.7754238349     -23.5724784743     -29.3520945758 
263 263 1   1.3000       9.9490282601      16.2618796934      17.2567221129 
264 264 1   1.3000       0.9871626012      16.7290847245      10.2117819082 
265 265 1   1.3000      -6.5238026986      21.0938888266      16.6350389790 
266 266 1   1.3000      22.1137878459      21.7113357784     -17.0765641084 
267 267 1   1.3000     -13.4233228213      14.7188016514     -21.6210463535 
268 268 1   1.3000      -4.9326977279      18.6548549490      -8.6659277323 
269 269 1   1.3000     -20.6083570429     -13.6269134511      13.0732053952 
270 270 1   1.3000      -9.2369583753     -10.8884108164      17.8011830113 
271 271 1   1.3000     -30.2514875995     -28.7201859809      26.9395568047 
272 272 1   1.3000      17.7281779652      22.6354935027      22.5619272006 
273 273 1   1.3000     -19.7117591795      28.1845630896      27.8645522826 
274 274 1   1.3000      18.7725997020      29.4282960049      -9.3846587783 
275 275 1   1.3000     -16.4192981902     -18.2426435177     -11.2223402354 
276 276 1   1.3000      15.6693906492      -5.2021495353       8.6206965926 
277 277 1   1.3000      11.2214715121       4.5420571469      20.8645099332 
278 278 1   1.3000     -16.9179269318     -14.4003124668       8.7806481324 
279 279 1   1.3000      29.7383277362     -11.0838634076       2.2120453002 
280 280 1   1.3000     -28.2046412614      10.3602883909      25.5610665770 
281 281 1   1.3000      -5.1533378959     -29.5447507006      -5.2401119382 
282 282 1   1.3000     -12.8698910133     -13.6161095912     -18.2867108485 
283 283 1   1.3000      -0.3611594675       3.1475106960      19.8477292775 
284 284 1   1.3000      20.3065911052      27.4629091403      22.0882415196 
285 285 1   1.3000     -27.4092942332      -3.5822185874      27.6042567701 
286 286 1   1.3000      27.3179265486      -9.0616952371     -17.2029380563 
287 287 1   1.3000      16.8388709316       5.4498691877      -2.9443816720 
288 288 1   1.3000      13.3270048242      25.6351388618      15.8484787592 
289 289 1   1.3000      18.4427151602      10.0345390514      23.3929534651 
290 290 1   1.3000      -2.2311226449      18.8848437243      26.6171194316 
291 291 1   1.3000      -8.0390829005       8.4605307632      16.0987589642 
292 292 1   1.3000      -1.7213000957     -26.8504896391       1.4711833607 
293 293 1   1.3000     -19.1458031369      28.3160227590     -18.7171040035 
294 294 1   1.3000     -25.5494854580     -30.2775045702     -16.7116758522 
295 295 1   1.3000     -23.2895605522     -23.1364168863     -13.9708524427 
296 296 1   1.3000       5.1187382819      17.7446155109      -4.4782711628 
297 297 1   1.3000       5.8675899203      -0.3361940112      13.0812472407 
298 298 1   1.3000      -8.9302728772     -16.4465879913      19.4442822998 
299 299 1   1.3000      -5.1830613240      -7.3919198146      24.7318960469 
300 300 1   1.3000     -17.4276435390       0.3449203379      24.6401811934 
301 301 1   1.3000      20.0370947408       7.6961782344     -28.5486166364 
302 302 1   1.3000       6.6518198177     -30.1509725774      -5.7694766264 
303 303 1   1.3000      25.0287085731       2.4359894238     -18.3820531359 
304 304 1   1.3000      -8.0197292239     -27.3688842817     -14.2267097738 
305 305 1   1.3000      -8.5263268402      -3.8534773843      16.5449645005 
306 306 1   1.3000     -14.1893974174      25.0685187971      -5.3216549314 
307 307 1   1.3000     -27.9812113968     -30.4961761448      30.0782860443 
308 308 1   1.3000     -12.0066775423      22.5005888765      -9.3760351673 
309 309 1   1.3000      -5.6980468029     -13.4259749090      19.6880419532 
310 310 1   1.3000      27.1280767014     -26.9551414499      28.7756990527 
311 311 1   1.3000     -29.2867076337      12.3251135533      -9.3012149469 
312 312 1   1.3000       0.2616927035      10.3728987889       1.7860368319 
313 313 1   1.3000     -18.9399018738     -25.7035067561       0.2708350315 
314 314 1   1.3000      18.5754429990       5.8250574033      29.0678762006 
315 315 1   1.3000      -4.2947082249       2.0823653434      -7.0883427298 
316 316 1   1.3000     -21.6521992118     -26.0496910315      26.9413349274 
317 317 1   1.3000     -15.1646986386      -5.6172881987       2.7724233683 
318 318 1   1.3000       3.4347213659      11.7242175770       4.0579796399 
319 319 1   1.3000      18.6472885939      -8.3745154717      12.1948797549 
320 320 1   1.3000       8.0867344462       2.3854872406       9.2686421365 
321 321 1   1.3000      19.6144128550     -23.1763447272      -4.9852132746 
322 322 1   1.3000      26.6776941741     -12.7659649115     -21.6585372664 
323 323 1   1.3000     -12.5876856312      25.6228204727     -14.9006061049 
324 324 1   1.3000       5.9439087535      -7.1758221874       7.7865330464 
325 325 1   1.3000     -21.1588642825     -17.9400827144      14.6148955409 
326 326 1   1.3000      -1.4104973506      -0.0465864765       6.8766721336 
327 327 1   1.3000     -19.6294346635      -3.3906674646     -11.5312229879 
328 328 1   1.3000      -2.4172138255      16.1499080358      21.7070050303 
329 329 1   1.3000     -17.8609700412      -2.7382375488     -28.6610869037 
330 330 1   1.3000     -17.3526291368     -28.9021318185       8.4586974674 
331 331 1   1.3000     -22.4498667631      14.8767445219       4.8991704515 
332 332 1   1.3000     -18.0710991659      20.2731513157       6.1661084977 
333 333 1   1.3000     -30.4554215027       2.7827433701      21.4271911682 
334 334 1   1.3000     -19.6336247032       0.1637993612      27.8640187509 
335 335 1   1.3000       8.6572458373      -9.5225573296      22.9921856375 
336 336 1   1.3000      14.3280252093      17.1547925977      18.6189857060 
337 337 1   1.3000       7.7058163982      -7.5945400695       0.3000055264 
338 338 1   1.3000      -5.6797221577      11.5048879601       6.0650450094 
339 339 1   1.3000     -12.3622053627     -17.3173341471      21.9347216925 
340 340 1   1.3000      -9.2309816161      -8.0080496589      -8.4419254052 
341 341 1   1.3000       3.5221122066       0.4928241280       8.9946581549 
342 342 1   1.3000      -7.5803203106      16.3301952666      -4.9583114099 
343 343 1   1.3000       3.2955162034      -3.2882626671      30.5859036119 
344 344 1   1.3000      -4.4232124302     -26.9443175995      17.7158768469 
345 345 1   1.3000     -24.0590771660      10.7697095358     -19.7477559591 
346 346 1   1.3000       9.4335079051      16.9358112801      28.5240000283 
347 347 1   1.3000       4.4795736079      24.7122017392       8.2467706136 
348 348 1   1.3000      19.8054750651     -16.7114178828     -26.3566054999 
349 349 1   1.3000      25.7659770649      25.9345443338      23.9952445536 
350 350 1   1.3000      12.4602873832       5.3525376243     -24.4895473356 
351 351 1   1.3000      -7.0496043224      -7.0459057406      19.6949412883 
352 352 1   1.3000      10.6118760581      11.3301998661     -19.9605784932 
353 353 1   1.3000       2.9571326680     -10.4442372021       7.3780144442 
354 354 1   1.3000     -15.0399093210     -11.0462669446      27.2574547053 
355 355 1   1.3000     -15.2989213575      27.9910720430     -25.7141082013 
356 356 1   1.3000     -12.5232083664       1.7361199516      10.5472898872 
357 357 1   1.3000       7.3944606547      -2.7628079723       7.7384656001 
358 358 1   1.3000     -21.0064526092      -4.1691994637       8.4223103202 
359 359 1   1.3000      -3.5252010442      10.8002148649      10.0594088412 
360 360 1   1.3000      22.4022960481     -20.3406071125     -27.9280982075 
361 361 1   1.3000      -7.9748603019      19.5237056637       3.1459636992 
362 362 1   1.3000      28.3469629346     -10.3613118215     -26.2982001941 
363 363 1   1.3000      16.5111270742     -19.6151694385     -20.3216036304 
364 364 1   1.3000     -14.6492419009      -5.6929462773     -29.3056910940 
365 365 1   1.3000      18.7226534547      21.1968912750       5.5092388300 
366 366 1   1.3000       3.3324296051     -24.3599350495      29.3133951286 
367 367 1   1.3000      13.4109978813      20.5650099637     -27.6095061630 
368 368 1   1.3000     -19.8321470816      -5.1822024110       2.7501174966 
369 369 1   1.3000     -25.5332060343       8.4059531370     -11.5337973630 
370 370 1   1.3000     -25.6522203627      12.3504435920      29.0402509932 
371 371 1   1.3000     -14.1089712962      -9.6357563367      16.6222804510 
372 372 1   1.3000     -21.7436019849     -19.1674471153       1.6735925236 
373 373 1   1.3000     -11.7754242337      -8.0403886025      25.6139370562 
374 374 1   1.3000     -11.8056136287     -16.2365090500     -25.7327669330 
375 375 1   1.3000      -9.6868217015     -27.2477173808      29.2606871797 
376 376 1   1.3000     -24.1063454730      10.1933992600      18.8734945865 
377 377 1   1.3000      17.8149471975     -11.3290555476      27.8424529781 
378 378 1   1.3000      28.1136218943      12.7172352637     -10.5133697778 
379 379 1   1.3000      -1.0552552789      28.1191721994      11.1618626146 
380 380 1   1.3000      21.4083155845     -11.1352527632     -21.4569718133 
381 381 1   1.3000      -9.5458262788      -1.7252575829       8.0059301096 
382 382 1   1.3000      12.0523884492     -12.8477464368      21.0056620744 
383 383 1   1.3000      17.0094156276     -25.3535885181      20.2029831425 
384 384 1   1.3000       9.1546360861       6.1294626938      17.3483211200 
385 385 1   1.3000      -5.4311405548       8.8242182484     -20.2269762681 
386 386 1   1.3000     -15.1814355806     -21.0413652967       5.4853769226 
387 387 1   1.3000     -15.5860438243      -7.9358837623     -22.8487143983 
388 388 1   1.3000      -6.1117590176       6.3572622918      -0.0786289525 
389 389 1   1.3000       2.2424844884     -10.4364893497     -19.6206583896 